276  
69   

1    
  0.0070710678118655   0.0070710678118655   0.0000000000000000
  -0.0018479916   -0.0027557122   -0.0000019515
   0.0000049184    0.0001161978   -0.0000012415
   0.0001271884   -0.0000114822    0.0000040885
  -0.0001125116    0.0000041878    0.0000033885
   0.0000131984    0.0000065778   -0.0001129015
  -0.0000021116    0.0000155878    0.0001103185
  -0.0001418716    0.0001551678    0.0000613985
  -0.0000281216    0.0000866878   -0.0001379415
   0.0000506784    0.0000181078    0.0000013385
  -0.0000494016    0.0000205678   -0.0000016715
   0.0000276484   -0.0000070322    0.0001133085
   0.0000148684    0.0000022678   -0.0000534915
  -0.0000150016    0.0000057478   -0.0000495215
  -0.0000155816    0.0000013778    0.0000486885
   0.0000025084    0.0000527178   -0.0000209915
   0.0000110684   -0.0000378322   -0.0000127515
  -0.0000022416   -0.0000474422    0.0000146585
   0.0000000284    0.0000551878    0.0000162785
   0.0003574084    0.0005835178    0.0006206785
   0.0000705084    0.0003384178   -0.0002027415
  -0.0000014116   -0.0000293222   -0.0000127815
  -0.0000038716   -0.0000289922    0.0000160185
  -0.0000826316   -0.0000005322   -0.0000176215
  -0.0000356716    0.0000158978    0.0000010085
   0.0000331984   -0.0000109022   -0.0000007015
   0.0000320584    0.0000175878   -0.0000004015
   0.0000079484    0.0000026778    0.0000370385
  -0.0000274016   -0.0000023822    0.0000222485
   0.0000140384    0.0000009078   -0.0000333515
  -0.0000118616    0.0000026578   -0.0000328815
  -0.0000172016    0.0000085278    0.0000149885
   0.0000142284    0.0000080278   -0.0000165215
   0.0010032384    0.0007640078   -0.0003825815
   0.0002022384   -0.0000043522   -0.0000712815
  -0.0000163216    0.0000069178    0.0000000585
   0.0000491284    0.0000053578   -0.0000022115
   0.0000146584    0.0000176278   -0.0000040115
  -0.0000180916   -0.0000120122   -0.0000044215
  -0.0000045716    0.0000178078    0.0000155585
  -0.0000079216   -0.0000155722   -0.0000184015
  -0.0000036616   -0.0000110622    0.0000075585
  -0.0000016916    0.0000219478   -0.0000103615
   0.0001191484    0.0000753478    0.0001306585
  -0.0000305916   -0.0000639322    0.0000322485
   0.0000130684   -0.0000177122    0.0000315785
  -0.0000120316   -0.0000201322   -0.0000328615
  -0.0000247416    0.0000353578   -0.0000001415
  -0.0000201816   -0.0000287122   -0.0000105615
   0.0000222684    0.0000353878   -0.0000116515
   0.0000239384   -0.0000295422    0.0000142085
  -0.0000311616    0.0000184078    0.0000229285
   0.0000326884   -0.0000082222    0.0000235585
  -0.0000319116   -0.0000069122   -0.0000207815
   0.0000342284    0.0000172078   -0.0000226615
  -0.0000094316   -0.0000429622   -0.0000085415
   0.0000105884   -0.0000426622    0.0000099585
   0.0000731484    0.0000229678   -0.0001823915
   0.0000748384    0.0000279878   -0.0000320015
   0.0000141084    0.0000140378   -0.0000465815
   0.0000405184   -0.0000199122   -0.0000097015
  -0.0000073016    0.0000136578    0.0000454185
   0.0000099984   -0.0000066322    0.0000467285
   0.0000478584   -0.0000071722    0.0000103485
   0.0000437184    0.0000108778   -0.0000118315
  -0.0000434816    0.0000110078    0.0000119985
  -0.0000465716   -0.0000079422   -0.0000108515
  -0.0000234716    0.0000571078   -0.0000222715
   0.0000401984    0.0000573678    0.0000318085
   0.0000209384   -0.0000508722   -0.0000215615
  -0.0000199816   -0.0000514722    0.0000207785
  -0.0000581116   -0.0000234322    0.0000183085
  -0.0000536716    0.0000249278   -0.0000203215
   0.0000551184   -0.0000175122   -0.0000211515
   0.0000553084    0.0000251378    0.0000217185
   0.0000221984    0.0000238678    0.0000541285
  -0.0000212616   -0.0000170222    0.0000529385
   0.0000211384   -0.0000170022   -0.0000545515
  -0.0000213416    0.0000222478   -0.0000564215
  -0.0000688716   -0.0000237722   -0.0000723515
   0.0000710284   -0.0000238722    0.0000729985
  -0.0000778916    0.0000300578    0.0000923285
   0.0000711884    0.0000293578   -0.0000776415
   0.0000729284    0.0000743478   -0.0000273715
  -0.0000720516   -0.0000744122   -0.0000229615
  -0.0000727816    0.0000725578    0.0000269285
   0.0000735184   -0.0000660822    0.0000275385
   0.0000267784   -0.0000693922    0.0000704185
   0.0000260084    0.0000757378   -0.0000705115
  -0.0000261916    0.0000753578    0.0000695585
  -0.0000266516   -0.0000694622   -0.0000697115
  -0.0000620216   -0.0000228222   -0.0000349215
   0.0000326584    0.0000109278    0.0000315285
   0.0000512284    0.0000117378   -0.0000272415
  -0.0000502716    0.0000124378    0.0000283185
   0.0000191984   -0.0000095022    0.0000636285
   0.0000097384    0.0000339078   -0.0000505115
  -0.0000078616   -0.0000249322   -0.0000514315
  -0.0000081716    0.0000314278    0.0000517885
   0.0000294784    0.0000541778   -0.0000092915
  -0.0000280316   -0.0000480122   -0.0000096915
   0.0000279184   -0.0000471722    0.0000085385
  -0.0000274416    0.0000545478    0.0000089985
   0.0001098284   -0.0000484422    0.0000233885
  -0.0001041716   -0.0000558722   -0.0000160915
  -0.0001088516    0.0000556378    0.0000239785
   0.0001092984    0.0000558778   -0.0000233515
   0.0000349684    0.0000136478   -0.0001215115
   0.0000534484   -0.0000199422    0.0001094985
  -0.0000539916    0.0000265478    0.0001345885
  -0.0000519316   -0.0000195522   -0.0001101015
  -0.0000229516   -0.0001062722   -0.0000506315
   0.0000228284    0.0001124778   -0.0000531915
  -0.0000234116    0.0001128278    0.0000516685
   0.0000231884   -0.0001064122    0.0000529085
  -0.0001214116    0.0000912878   -0.0000047715
   0.0001620484    0.0000963578   -0.0000083415
   0.0001320984   -0.0000938622   -0.0000068915
  -0.0001315916   -0.0000938322    0.0000073585
  -0.0000893616   -0.0000068522    0.0001258985
  -0.0000946716    0.0000083478   -0.0001315715
   0.0000981884   -0.0000032922   -0.0001311815
   0.0000981384    0.0000100378    0.0001309085
   0.0000081184    0.0001343578    0.0000968785
  -0.0000068416   -0.0001292722    0.0000962285
   0.0000072784   -0.0001291222   -0.0000984615
  -0.0000062416    0.0001345678   -0.0000980015
  -0.0000064416   -0.0000309022    0.0000407785
   0.0000179184   -0.0000225622   -0.0000386615
   0.0000120084    0.0000424678    0.0000384285
  -0.0000122116    0.0000418478   -0.0000386615
   0.0000346684    0.0000557978    0.0000076185
   0.0000360384   -0.0000389722   -0.0000117115
  -0.0000388516    0.0000430278   -0.0000121115
  -0.0000391416   -0.0000367022    0.0000119085
  -0.0000388916    0.0000155678   -0.0000396015
   0.0000388584   -0.0000095022   -0.0000376815
  -0.0000387516   -0.0000091822    0.0000394085
   0.0000398884    0.0000151478    0.0000397285
   0.0000027684   -0.0001112922    0.0000000285
  -0.0000122716    0.0001489278   -0.0000056315
   0.0001146684    0.0000041678    0.0000019485
  -0.0000706516    0.0000672078    0.0000269985
  -0.0000258916    0.0000465378   -0.0000874515
   0.0000147284    0.0000011978    0.0001143685
  -0.0000484316   -0.0000136722    0.0000017185
   0.0000508984   -0.0000116122   -0.0000014215
   0.0000465084    0.0000313878   -0.0000052915
  -0.0000488116    0.0000266478    0.0000045685
   0.0000169784    0.0000043478    0.0000502585
   0.0000167684    0.0000020478   -0.0000502515
   0.0001937184    0.0002479478    0.0000396085
  -0.0000305616    0.0000173878    0.0000521485
  -0.0000018716    0.0000603178   -0.0000099715
   0.0000073784   -0.0000482122   -0.0000099015
   0.0000026584   -0.0000462722    0.0000194485
   0.0000120984    0.0000497478    0.0000040585
  -0.0000015416    0.0000359278   -0.0000145115
  -0.0000009016    0.0000359778    0.0000131985
   0.0000033084   -0.0000461422   -0.0000040915
   0.0000034284   -0.0000420122    0.0000083085
  -0.0000335516   -0.0000102322    0.0000003585
  -0.0000334816    0.0000165378   -0.0000008915
  -0.0000960916   -0.0001056922    0.0000373485
   0.0000407584   -0.0000088922   -0.0000065715
   0.0000212584    0.0000003478    0.0000273485
  -0.0000125916   -0.0000050622    0.0000248785
   0.0000049384    0.0000065178   -0.0000376015
  -0.0000217616    0.0000013978   -0.0000244615
   0.0000013684   -0.0000102722    0.0000171285
   0.0000163384    0.0000006578   -0.0000176115
  -0.0000157316   -0.0000019522   -0.0000167715
   0.0000144884   -0.0000011822    0.0000167185
  -0.0000186616    0.0000191078    0.0000054985
   0.0000147384   -0.0000113022    0.0000040285
   0.0000251784   -0.0000012722    0.0000007585
  -0.0000430316   -0.0001182522   -0.0000748115
  -0.0000191616    0.0000086178    0.0000196485
  -0.0000177516   -0.0000183522   -0.0000275315
   0.0000054284   -0.0000150522    0.0000142485
   0.0000098884    0.0000203378   -0.0000209615
  -0.0000125816    0.0000255178    0.0000320785
   0.0000127484    0.0000242678   -0.0000316315
   0.0000168984   -0.0000205522    0.0000301485
  -0.0000147616   -0.0000197722   -0.0000295115
  -0.0000219416    0.0000353178    0.0000126085
  -0.0000220516   -0.0000289922   -0.0000126215
  -0.0000532816   -0.0000055222    0.0000285885
   0.0000246784   -0.0000285922    0.0000243785
  -0.0000326016    0.0000099178    0.0000207985
   0.0000349184   -0.0000037122    0.0000192985
  -0.0000302516   -0.0000118522   -0.0000212415
   0.0000309184    0.0000119478   -0.0000173215
  -0.0000116416   -0.0000469122   -0.0000164115
   0.0000136284   -0.0000425822    0.0000078685
  -0.0000102616    0.0000484878    0.0000086685
   0.0000106584    0.0000492178   -0.0000098615
   0.0000126284    0.0000120878   -0.0000479415
  -0.0000076316   -0.0000070522   -0.0000454415
  -0.0000151816    0.0000141778    0.0000472385
   0.0000039984   -0.0000472222    0.0000184285
   0.0000413384    0.0000035778    0.0000071985
   0.0000459884    0.0000090578   -0.0000056315
  -0.0000445616    0.0000122878    0.0000112585
  -0.0000447916   -0.0000067422   -0.0000113515
  -0.0000198616    0.0000574178   -0.0000214315
   0.0000210184    0.0000575178    0.0000215085
   0.0000225984   -0.0000502222   -0.0000208015
  -0.0000210516   -0.0000505522    0.0000207585
  -0.0000541316   -0.0000176022    0.0000205985
  -0.0000542516    0.0000242178   -0.0000209015
   0.0000406784   -0.0000294222   -0.0000197615
   0.0000550984    0.0000259578    0.0000199185
   0.0000167484    0.0000200878    0.0000556685
  -0.0000208916   -0.0000174622    0.0000551185
   0.0000229884   -0.0000174522   -0.0000537415
  -0.0000210616    0.0000234878   -0.0000524915
  -0.0000685816   -0.0000232022   -0.0000746315
   0.0000699384   -0.0000222122    0.0000739785
  -0.0000696416    0.0000298778    0.0000724885
   0.0000708884    0.0000304078   -0.0000729415
   0.0000741384    0.0000743678   -0.0000282215
  -0.0000728716   -0.0000665922   -0.0000270315
  -0.0000722516    0.0000738678    0.0000268485
   0.0000698984   -0.0000767322    0.0000248985
   0.0000281584   -0.0000695022    0.0000696185
   0.0000305084    0.0000715178   -0.0000664515
  -0.0000259816    0.0000762378    0.0000704785
  -0.0000254416   -0.0000697022   -0.0000715315
  -0.0000505416   -0.0000059222   -0.0000281715
   0.0000512384   -0.0000052022    0.0000270385
   0.0000502484    0.0000111978   -0.0000283815
  -0.0000511716    0.0000126278    0.0000266385
   0.0000088684   -0.0000249022    0.0000512985
   0.0000087984    0.0000313978   -0.0000512315
  -0.0000073216   -0.0000199922   -0.0000585115
  -0.0000055916    0.0000311878    0.0000522785
   0.0000286984    0.0000540078   -0.0000093615
  -0.0000266516   -0.0000460722   -0.0000072315
   0.0000283284   -0.0000482722    0.0000080685
  -0.0000259616    0.0000559078    0.0000053785
   0.0001229584   -0.0000486522    0.0000219585
  -0.0001087716   -0.0000489122   -0.0000237115
  -0.0001068016    0.0000579778    0.0000254885
   0.0001097284    0.0000546478   -0.0000232915
   0.0000529884    0.0000263478   -0.0001095615
   0.0000509684   -0.0000179222    0.0001095985
  -0.0000520516    0.0000259278    0.0001098085
  -0.0000509916   -0.0000236122   -0.0001092815
  -0.0000220316   -0.0001062322   -0.0000526615
   0.0000239484    0.0001137778   -0.0000514215
  -0.0000222616    0.0001122478    0.0000527885
   0.0000268284   -0.0001080822    0.0000559285
  -0.0001313516    0.0001003578   -0.0000070215
   0.0001321384    0.0001001578    0.0000068785
   0.0001321284   -0.0000958422   -0.0000065815
  -0.0001304116   -0.0000939222    0.0000065285
  -0.0000971716   -0.0000034222    0.0001314585
  -0.0000975116    0.0000097278   -0.0001315715
   0.0000957384   -0.0000137022   -0.0001418315
   0.0000996684    0.0000141478    0.0001293085
   0.0000065684    0.0001355078    0.0000975785
  -0.0000081416   -0.0001302022    0.0001005285
   0.0000077284   -0.0001274622   -0.0000969015
  -0.0000052416    0.0001348378   -0.0000964715
  -0.0000117316   -0.0000355222    0.0000387685
   0.0000120884   -0.0000357122   -0.0000384915
   0.0000128184    0.0000442078    0.0000359985
  -0.0000121416    0.0000428478   -0.0000377615
   0.0000398684    0.0000425278    0.0000120285
   0.0000399384   -0.0000359022   -0.0000118915
  -0.0000380816    0.0000356478   -0.0000200915
  -0.0000467016   -0.0000330822    0.0000100485
  -0.0000391616    0.0000154578   -0.0000385815
   0.0000399384   -0.0000099722   -0.0000407615
  -0.0000385716   -0.0000079122    0.0000401285
   0.0000371884    0.0000133178    0.0000388885

1    
 -0.0070710678118655  -0.0070710678118655   0.0000000000000000
   0.0015875862    0.0020352976   -0.0000599700
  -0.0000037238    0.0001282676    0.0000012500
   0.0001166262    0.0000132876   -0.0000040500
  -0.0001289138   -0.0000023424   -0.0000034000
  -0.0000119938   -0.0000047324   -0.0001297000
   0.0000032362   -0.0000137024    0.0001322700
   0.0000436762   -0.0001879324   -0.0000601400
   0.0001276762   -0.0001198424    0.0001358800
   0.0000500662    0.0000189276   -0.0000007400
  -0.0000489738    0.0000164676    0.0000011000
   0.0000086362    0.0000099076   -0.0000132200
   0.0000215162   -0.0000010024   -0.0000460500
  -0.0000190038   -0.0000033124   -0.0000500300
  -0.0000184238   -0.0000001124    0.0000508900
  -0.0000019038    0.0000486876   -0.0000141900
  -0.0000092838   -0.0000598724   -0.0000224100
   0.0000028362   -0.0000502824    0.0000205400
   0.0000017362    0.0000462376    0.0000189300
  -0.0003499338   -0.0004951024   -0.0006200600
  -0.0000688838   -0.0002677224    0.0002280400
   0.0000019762   -0.0000416024   -0.0000104500
   0.0000056662   -0.0000419224    0.0000072600
   0.0000109062   -0.0000210124    0.0000169200
  -0.0000359138    0.0000091876   -0.0000003700
   0.0000407462   -0.0000105024    0.0000013400
   0.0000418862    0.0000075076   -0.0000001900
   0.0000164762   -0.0000014424    0.0000357400
   0.0000053062    0.0000048576    0.0000505200
   0.0000104062    0.0000015576   -0.0000393900
  -0.0000102138   -0.0000014224   -0.0000398300
  -0.0000066138   -0.0000038524    0.0000194800
   0.0000119462   -0.0000033524   -0.0000178900
  -0.0010857438   -0.0008071924    0.0003734600
  -0.0001830538    0.0000080476    0.0001067000
  -0.0000169238    0.0000198776    0.0000027900
  -0.0000136738   -0.0000280924    0.0000047400
   0.0000209662    0.0000092176    0.0000012100
  -0.0000151638   -0.0000111424    0.0000016100
   0.0000029062    0.0000184576    0.0000094800
   0.0000062762   -0.0000170224   -0.0000065600
   0.0000076562   -0.0000215224    0.0000174300
   0.0000057062    0.0000143376   -0.0000146200
  -0.0001432938   -0.0000283724   -0.0000654600
   0.0000581662    0.0001090676   -0.0000944000
   0.0000140262   -0.0000240224    0.0000313000
  -0.0000126838   -0.0000216024   -0.0000299900
  -0.0000174538    0.0000294076    0.0000258500
  -0.0000222138   -0.0000323124   -0.0000153200
   0.0000224962    0.0000293176   -0.0000142300
   0.0000208262   -0.0000314724    0.0000117000
  -0.0000305138    0.0000093376    0.0000206700
   0.0000313562   -0.0000158424    0.0000200300
  -0.0000297738   -0.0000171324   -0.0000227800
   0.0000298362    0.0000105476   -0.0000209000
  -0.0000111338   -0.0000472724   -0.0000103800
   0.0000123562   -0.0000475824    0.0000090000
  -0.0000951938    0.0000697476    0.0002016900
  -0.0000518238    0.0000654576    0.0000128500
   0.0000060462    0.0000095676   -0.0000454800
  -0.0000579538    0.0000002976   -0.0000824800
  -0.0000104538    0.0000099476    0.0000466900
   0.0000101262   -0.0000132824    0.0000453700
   0.0000454262   -0.0000099124    0.0000114200
   0.0000495662    0.0000099076   -0.0000099000
  -0.0000474138    0.0000097776    0.0000097700
  -0.0000443338   -0.0000091524   -0.0000108800
  -0.0000166138    0.0000529476   -0.0000203500
   0.0000021862    0.0000527476    0.0000108700
   0.0000215862   -0.0000555724   -0.0000210700
  -0.0000201638   -0.0000549724    0.0000218900
  -0.0000489338   -0.0000173924    0.0000230600
  -0.0000534438    0.0000195676   -0.0000209900
   0.0000543562   -0.0000232924   -0.0000201700
   0.0000541662    0.0000193576    0.0000196300
   0.0000216362    0.0000193176    0.0000541800
  -0.0000202038   -0.0000224724    0.0000553700
   0.0000226962   -0.0000224824   -0.0000537200
  -0.0000201338    0.0000209176   -0.0000518600
  -0.0000699638   -0.0000278924   -0.0000736500
   0.0000701862   -0.0000277824    0.0000730400
  -0.0000607738    0.0000254376    0.0000537400
   0.0000700162    0.0000259476   -0.0000684600
   0.0000742762    0.0000675276   -0.0000261300
  -0.0000727838   -0.0000637724   -0.0000305300
  -0.0000720638    0.0000693076    0.0000266000
   0.0000736862   -0.0000720924    0.0000259900
   0.0000279062   -0.0000747924    0.0000696300
   0.0000286862    0.0000721276   -0.0000695000
  -0.0000261338    0.0000725176    0.0000705000
  -0.0000256638   -0.0000747124   -0.0000703000
  -0.0000392938    0.0000067376   -0.0000208700
   0.0000708862   -0.0000264924    0.0000242200
   0.0000524262    0.0000079576   -0.0000285700
  -0.0000510238    0.0000072576    0.0000275300
  -0.0000002138   -0.0000443524    0.0000389600
   0.0000093062    0.0000237576   -0.0000519500
  -0.0000088038   -0.0000290524   -0.0000510300
  -0.0000084838    0.0000262476    0.0000507100
   0.0000275362    0.0000501476   -0.0000085400
  -0.0000266138   -0.0000526224   -0.0000081400
   0.0000290962   -0.0000534524    0.0000093300
  -0.0000272038    0.0000497776    0.0000088700
   0.0001102762   -0.0000534924    0.0000225800
  -0.0001134338   -0.0000460924   -0.0000298300
  -0.0001088838    0.0000499876    0.0000219900
   0.0001108062    0.0000497576   -0.0000225800
   0.0000700062    0.0000341976   -0.0000975000
   0.0000515262   -0.0000241624    0.0001094400
  -0.0000485638    0.0000211876    0.0000839900
  -0.0000506638   -0.0000245524   -0.0001088000
  -0.0000218138   -0.0001108024   -0.0000531300
   0.0000243062    0.0001082776   -0.0000505800
  -0.0000213538    0.0001079376    0.0000521300
   0.0000239362   -0.0001106624    0.0000508900
  -0.0001400438    0.0001045976   -0.0000088100
   0.0001023262    0.0000995876    0.0000217000
   0.0001318262   -0.0000984124   -0.0000066300
  -0.0001299538   -0.0000984424    0.0000061900
  -0.0001035638   -0.0000048824    0.0001368500
  -0.0000982638    0.0000070376   -0.0001311500
   0.0000971162   -0.0000083924   -0.0001315400
   0.0000971662    0.0000053476    0.0001318400
   0.0000066062    0.0001302176    0.0000972600
  -0.0000055138   -0.0001316224    0.0000979000
   0.0000074362   -0.0001317724   -0.0000956400
  -0.0000061138    0.0001300176   -0.0000960900
  -0.0000164538   -0.0000451824    0.0000376500
   0.0000073562   -0.0000534324   -0.0000397200
   0.0000131962    0.0000373576    0.0000400400
  -0.0000106338    0.0000379676   -0.0000397700
   0.0000445062    0.0000244376    0.0000164200
   0.0000431062   -0.0000376324   -0.0000122900
  -0.0000379338    0.0000372676   -0.0000119000
  -0.0000376438   -0.0000399124    0.0000121300
  -0.0000383738    0.0000102976   -0.0000383500
   0.0000407762   -0.0000126824   -0.0000402600
  -0.0000385238   -0.0000130024    0.0000385800
   0.0000397562    0.0000107276    0.0000382700
  -0.0000015838   -0.0001294824   -0.0000000200
   0.0000134262    0.0000955776    0.0000056700
   0.0001291462   -0.0000023224   -0.0000019500
  -0.0001706838   -0.0000651424   -0.0000268200
   0.0000270762   -0.0000447424   -0.0001551400
  -0.0000135138    0.0000006376    0.0001282600
  -0.0000499438   -0.0000196824   -0.0000011100
   0.0000498462   -0.0000217324    0.0000008600
   0.0000542262    0.0000056476    0.0000059000
  -0.0000495838    0.0000104176   -0.0000051100
   0.0000193962   -0.0000019224    0.0000493200
   0.0000196062   -0.0000007824   -0.0000493000
  -0.0002319638   -0.0002477724   -0.0001365200
  -0.0000034738   -0.0000161024    0.0000474400
   0.0000024662    0.0000410976   -0.0000252000
  -0.0000056238   -0.0000495124   -0.0000252800
  -0.0000020438   -0.0000514524    0.0000157700
  -0.0000103038    0.0000516576    0.0000311200
   0.0000033362    0.0000386776   -0.0000087200
   0.0000014562    0.0000386376    0.0000100700
  -0.0000027338   -0.0000247924   -0.0000191500
  -0.0000016238   -0.0000289424    0.0000149300
  -0.0000380338   -0.0000111724   -0.0000009500
  -0.0000381038    0.0000085576    0.0000015300
   0.0001686862    0.0000832676   -0.0000365600
   0.0000332062    0.0000339576    0.0000059400
   0.0000031662    0.0000008976    0.0000454500
  -0.0000094638    0.0000075376    0.0000479200
   0.0000194762   -0.0000040524   -0.0000351500
  -0.0000003238   -0.0000001724   -0.0000482600
  -0.0000251538    0.0000149176    0.0000173200
   0.0000098362    0.0000040076   -0.0000168100
  -0.0000080838    0.0000009676   -0.0000176400
   0.0000116962    0.0000001976    0.0000177500
  -0.0000145938    0.0000077376   -0.0000026400
   0.0000208862   -0.0000118524   -0.0000011800
   0.0000104562    0.0000281176   -0.0000035700
   0.0000095462    0.0000951776    0.0000724500
   0.0000174562    0.0000276076    0.0000053800
   0.0000160762   -0.0000142724    0.0000025100
  -0.0000014038   -0.0000175424    0.0000107800
  -0.0000058838    0.0000159576   -0.0000040000
  -0.0000121438    0.0000199176    0.0000308000
   0.0000143362    0.0000211576   -0.0000312200
   0.0000101862   -0.0000211824    0.0000327300
  -0.0000099638   -0.0000219624   -0.0000333300
  -0.0000204538    0.0000293976    0.0000133100
  -0.0000203438   -0.0000320324   -0.0000132700
   0.0000977162    0.0000698076   -0.0000547700
   0.0000200962   -0.0000324324    0.0000015500
  -0.0000290738    0.0000178276    0.0000228000
   0.0000291362   -0.0000203524    0.0000243100
  -0.0000314238   -0.0000122124   -0.0000223200
   0.0000331262    0.0000157876   -0.0000262300
  -0.0000089238   -0.0000433424   -0.0000025200
   0.0000093162   -0.0000476624    0.0000110800
  -0.0000103138    0.0000454476    0.0000102900
   0.0000122762    0.0000447076   -0.0000090600
   0.0000075062    0.0000115176   -0.0000441300
  -0.0000101238   -0.0000128624   -0.0000466300
  -0.0000025638    0.0000094176    0.0000448700
   0.0000165662    0.0000272876    0.0000739700
   0.0000519162   -0.0000206524    0.0000145700
   0.0000472862    0.0000117076   -0.0000161000
  -0.0000463338    0.0000084976    0.0000105200
  -0.0000461038   -0.0000103524   -0.0000103900
  -0.0000202938    0.0000527276   -0.0000212100
   0.0000215062    0.0000526176    0.0000211600
   0.0000199262   -0.0000562224   -0.0000218400
  -0.0000191038   -0.0000558924    0.0000219200
  -0.0000529838   -0.0000232024    0.0000207600
  -0.0000528638    0.0000202776   -0.0000204200
   0.0000686462   -0.0000114724   -0.0000215400
   0.0000543762    0.0000185476    0.0000214400
   0.0000270862    0.0000230876    0.0000526400
  -0.0000205838   -0.0000220324    0.0000531900
   0.0000208562   -0.0000220324   -0.0000545300
  -0.0000204138    0.0000196976   -0.0000557700
  -0.0000702538   -0.0000284624   -0.0000713800
   0.0000712662   -0.0000294524    0.0000720700
  -0.0000692038    0.0000254676    0.0000735500
   0.0000703262    0.0000249476   -0.0000730600
   0.0000730762    0.0000675076   -0.0000252700
  -0.0000719638   -0.0000715824   -0.0000264600
  -0.0000725838    0.0000679976    0.0000266700
   0.0000773062   -0.0000613524    0.0000287400
   0.0000265362   -0.0000746824    0.0000704200
   0.0000241962    0.0000763476   -0.0000735300
  -0.0000263438    0.0000716276    0.0000695600
  -0.0000268838   -0.0000744824   -0.0000684800
  -0.0000507438   -0.0000100824   -0.0000276400
   0.0000524262   -0.0000108024    0.0000288100
   0.0000534162    0.0000084976   -0.0000274200
  -0.0000501138    0.0000070676    0.0000292000
   0.0000101662   -0.0000290824    0.0000511900
   0.0000102362    0.0000262776   -0.0000512300
  -0.0000094738   -0.0000343024   -0.0000439100
  -0.0000110838    0.0000264776    0.0000502200
   0.0000283162    0.0000503176   -0.0000084700
  -0.0000279838   -0.0000545524   -0.0000105900
   0.0000286762   -0.0000523624    0.0000098000
  -0.0000286838    0.0000484176    0.0000124900
   0.0000971762   -0.0000532224    0.0000240100
  -0.0001089538   -0.0000530224   -0.0000222200
  -0.0001109238    0.0000476476    0.0000204800
   0.0001103762    0.0000509776   -0.0000226400
   0.0000519862    0.0000214476   -0.0001093300
   0.0000539962   -0.0000261724    0.0001093400
  -0.0000505438    0.0000218676    0.0001091300
  -0.0000516038   -0.0000205024   -0.0001096200
  -0.0000227338   -0.0001108424   -0.0000511000
   0.0000231862    0.0001069876   -0.0000523400
  -0.0000225038    0.0001085176    0.0000510200
   0.0000203262   -0.0001089924    0.0000478800
  -0.0001302038    0.0000956076   -0.0000064900
   0.0001317862    0.0000958076    0.0000066800
   0.0001317862   -0.0000964324   -0.0000069400
  -0.0001311438   -0.0000983524    0.0000070300
  -0.0000957638   -0.0000082724    0.0001312900
  -0.0000954138    0.0000056576   -0.0001311500
   0.0000995362    0.0000020476   -0.0001209400
   0.0000956362    0.0000012476    0.0001334500
   0.0000081462    0.0001290776    0.0000965600
  -0.0000042038   -0.0001306924    0.0000936000
   0.0000069962   -0.0001334224   -0.0000972000
  -0.0000071038    0.0001297476   -0.0000976200
  -0.0000111138   -0.0000406024    0.0000397100
   0.0000131162   -0.0000404124   -0.0000399400
   0.0000123862    0.0000356176    0.0000424600
  -0.0000107038    0.0000369676   -0.0000406700
   0.0000392862    0.0000377676    0.0000120200
   0.0000392162   -0.0000407024   -0.0000121100
  -0.0000385938    0.0000445876   -0.0000039800
  -0.0000300938   -0.0000435124    0.0000140000
  -0.0000381038    0.0000104176   -0.0000393700
   0.0000396962   -0.0000122024   -0.0000371900
  -0.0000386938   -0.0000142724    0.0000378600
   0.0000424362    0.0000125476    0.0000391000

1    
  0.0000000000000000   0.0000000000000000   0.0100000000000000
   0.0000415051   -0.0003769428   -0.0029500322
   0.0000017551    0.0001221372    0.0000081578
   0.0001044751    0.0000227972   -0.0000183822
  -0.0001224249   -0.0000030028    0.0000210978
  -0.0000038049    0.0000008272   -0.0001180422
  -0.0000220349   -0.0000547828    0.0001581078
  -0.0001618049    0.0001749372    0.0001203378
  -0.0000628749   -0.0002075628    0.0001184178
   0.0000507851    0.0000179072    0.0000025178
  -0.0000487749    0.0000189272    0.0000019378
   0.0000611051    0.0000497772   -0.0000715922
   0.0000187951    0.0000042272   -0.0000508222
  -0.0000175949    0.0000026472   -0.0000465422
  -0.0000177149    0.0000023272    0.0000521578
  -0.0000032649    0.0000497372   -0.0000119822
  -0.0000037249   -0.0000529528   -0.0000182122
   0.0000101951   -0.0000481928    0.0000305178
  -0.0000028049    0.0000454572    0.0000290278
   0.0003293051    0.0006260572    0.0008306778
   0.0003129251   -0.0005221828    0.0008253378
   0.0000008251   -0.0000350628   -0.0000122822
   0.0000014451   -0.0000360828    0.0000109578
   0.0000324851   -0.0000896528    0.0000122278
  -0.0000373449    0.0000069872    0.0000078878
   0.0000367051   -0.0000103228   -0.0000007722
   0.0000351751    0.0000134172   -0.0000019122
   0.0000142251    0.0000001872    0.0000356378
  -0.0000079849   -0.0000004528    0.0000422778
   0.0000065551    0.0000111572   -0.0000496322
   0.0000012951    0.0000063872   -0.0000504422
  -0.0000147649    0.0000022672    0.0000151078
   0.0000102151    0.0000021772   -0.0000193322
  -0.0003227249   -0.0001738728    0.0002998478
  -0.0002976249    0.0001712372    0.0003378778
  -0.0000131449    0.0000295372    0.0000053878
   0.0000027051    0.0000839772   -0.0001096622
   0.0000181251    0.0000141772   -0.0000009022
  -0.0000169649   -0.0000121828   -0.0000002722
   0.0000070951    0.0000235672   -0.0000027422
  -0.0000091349   -0.0000176728   -0.0000214622
   0.0000054151   -0.0000181728    0.0000206878
   0.0000076551    0.0000137772   -0.0000107122
   0.0001346851    0.0000267072    0.0001359178
   0.0001600251    0.0000202272    0.0000716278
   0.0000119051   -0.0000212828    0.0000335078
  -0.0000139949   -0.0000206628   -0.0000293522
  -0.0000277249    0.0000145572    0.0000435878
  -0.0000222849   -0.0000307828   -0.0000122222
   0.0000207751    0.0000321172   -0.0000099722
   0.0000240551   -0.0000313228    0.0000180778
  -0.0000310949    0.0000128272    0.0000226078
   0.0000320751   -0.0000122528    0.0000254478
  -0.0000288549   -0.0000202728   -0.0000237122
   0.0000282251    0.0000153172   -0.0000168622
  -0.0000097749   -0.0000466128   -0.0000076122
   0.0000119751   -0.0000438428    0.0000113278
  -0.0001361449   -0.0000424428    0.0000738178
  -0.0001128649    0.0001351872    0.0000547178
  -0.0000000949    0.0000109672   -0.0000416222
  -0.0000311449    0.0000265272   -0.0000952722
  -0.0000106049    0.0000111672    0.0000485978
   0.0000087851   -0.0000100128    0.0000477078
   0.0000453951   -0.0000107128    0.0000144578
   0.0000419251    0.0000054472   -0.0000098322
  -0.0000453049    0.0000053972    0.0000132378
  -0.0000446149   -0.0000063728   -0.0000074622
  -0.0000302549    0.0000555772   -0.0000244122
   0.0000110151    0.0000542672    0.0000182878